# vtk DataFile Version 3.0
2D Stress-Strain Distribution
ASCII
DATASET POLYDATA
POINTS 2333 float
15.8 1.2 0
32.8 1.2 0
32.8 7.3 0
31.3 7.3 0
31 8.5 0
30 8.5 0
30.1 7.3 0
30.3 6.1 0
24.7 5.8 0
24.7 5.6 0
24.2 5.6 0
24.2 5.3 0
23.8 5.3 0
23.8 5.1 0
23.4 5.1 0
23.4 4.9 0
23 4.9 0
23 4.6 0
22.5 4.6 0
22.5 4.3 0
20.3 4.3 0
20.3 4 0
19.8 4 0
19.8 3.8 0
19.4 3.8 0
19.4 3.5 0
19 3.5 0
19 3.3 0
18.6 3.3 0
18.6 3.1 0
18.2 3 0
18.2 2.8 0
17.7 2.8 0
17.7 2.6 0
17.4 2.5 0
17.4 2.3 0
16.9 2.3 0
16.9 2 0
16.5 2 0
16.5 1.8 0
16.1 1.8 0
16.1 1.5 0
15.8 1.5 0
16.2474 1.2 0
16.6947 1.2 0
17.1421 1.2 0
17.5895 1.2 0
18.0368 1.2 0
18.4842 1.2 0
18.9316 1.2 0
19.3789 1.2 0
19.8263 1.2 0
20.2737 1.2 0
20.7211 1.2 0
21.1684 1.2 0
21.6158 1.2 0
22.0632 1.2 0
22.5105 1.2 0
22.9579 1.2 0
23.4053 1.2 0
23.8526 1.2 0
24.3 1.2 0
24.7474 1.2 0
25.1947 1.2 0
25.6421 1.2 0
26.0895 1.2 0
26.5368 1.2 0
26.9842 1.2 0
27.4316 1.2 0
27.8789 1.2 0
28.3263 1.2 0
28.7737 1.2 0
29.2211 1.2 0
29.6684 1.2 0
30.1158 1.2 0
30.5632 1.2 0
31.0105 1.2 0
31.4579 1.2 0
31.9053 1.2 0
32.3526 1.2 0
32.8 1.36053 0
32.8 1.52105 0
32.8 1.68158 0
32.8 1.84211 0
32.8 2.00263 0
32.8 2.16316 0
32.8 2.32368 0
32.8 2.48421 0
32.8 2.64474 0
32.8 2.80526 0
32.8 2.96579 0
32.8 3.12632 0
32.8 3.28684 0
32.8 3.44737 0
32.8 3.60789 0
32.8 3.76842 0
32.8 3.92895 0
32.8 4.08947 0
32.8 4.25 0
32.8 4.41053 0
32.8 4.57105 0
32.8 4.73158 0
32.8 4.89211 0
32.8 5.05263 0
32.8 5.21316 0
32.8 5.37368 0
32.8 5.53421 0
32.8 5.69474 0
32.8 5.85526 0
32.8 6.01579 0
32.8 6.17632 0
32.8 6.33684 0
32.8 6.49737 0
32.8 6.65789 0
32.8 6.81842 0
32.8 6.97895 0
32.8 7.13947 0
32.6125 7.3 0
32.425 7.3 0
32.2375 7.3 0
32.05 7.3 0
31.8625 7.3 0
31.675 7.3 0
31.4875 7.3 0
31.2625 7.45 0
31.225 7.6 0
31.1875 7.75 0
31.15 7.9 0
31.1125 8.05 0
31.075 8.2 0
31.0375 8.35 0
30.875 8.5 0
30.75 8.5 0
30.625 8.5 0
30.5 8.5 0
30.375 8.5 0
30.25 8.5 0
30.125 8.5 0
30.0125 8.35 0
30.025 8.2 0
30.0375 8.05 0
30.05 7.9 0
30.0625 7.75 0
30.075 7.6 0
30.0875 7.45 0
30.125 7.15 0
30.15 7 0
30.175 6.85 0
30.2 6.7 0
30.225 6.55 0
30.25 6.4 0
30.275 6.25 0
29.9889 6.08333 0
29.6778 6.06667 0
29.3667 6.05 0
29.0556 6.03333 0
28.7444 6.01667 0
28.4333 6 0
28.1222 5.98333 0
27.8111 5.96667 0
27.5 5.95 0
27.1889 5.93333 0
26.8778 5.91667 0
26.5667 5.9 0
26.2556 5.88333 0
25.9444 5.86667 0
25.6333 5.85 0
25.3222 5.83333 0
25.0111 5.81667 0
24.7 5.7 0
24.6167 5.6 0
24.5333 5.6 0
24.45 5.6 0
24.3667 5.6 0
24.2833 5.6 0
24.2 5.525 0
24.2 5.45 0
24.2 5.375 0
24.15 5.3 0
24.1 5.3 0
24.05 5.3 0
24 5.3 0
23.95 5.3 0
23.9 5.3 0
23.85 5.3 0
23.8 5.25 0
23.8 5.2 0
23.8 5.15 0
23.75 5.1 0
23.7 5.1 0
23.65 5.1 0
23.6 5.1 0
23.55 5.1 0
23.5 5.1 0
23.45 5.1 0
23.4 5.05 0
23.4 5 0
23.4 4.95 0
23.35 4.9 0
23.3 4.9 0
23.25 4.9 0
23.2 4.9 0
23.15 4.9 0
23.1 4.9 0
23.05 4.9 0
23 4.825 0
23 4.75 0
23 4.675 0
22.9375 4.6 0
22.875 4.6 0
22.8125 4.6 0
22.75 4.6 0
22.6875 4.6 0
22.625 4.6 0
22.5625 4.6 0
22.5 4.525 0
22.5 4.45 0
22.5 4.375 0
22.3778 4.3 0
22.2556 4.3 0
22.1333 4.3 0
22.0111 4.3 0
21.8889 4.3 0
21.7667 4.3 0
21.6444 4.3 0
21.5222 4.3 0
21.4 4.3 0
21.2778 4.3 0
21.1556 4.3 0
21.0333 4.3 0
20.9111 4.3 0
20.7889 4.3 0
20.6667 4.3 0
20.5444 4.3 0
20.4222 4.3 0
20.3 4.225 0
20.3 4.15 0
20.3 4.075 0
20.2375 4 0
20.175 4 0
20.1125 4 0
20.05 4 0
19.9875 4 0
19.925 4 0
19.8625 4 0
19.8 3.95 0
19.8 3.9 0
19.8 3.85 0
19.75 3.8 0
19.7 3.8 0
19.65 3.8 0
19.6 3.8 0
19.55 3.8 0
19.5 3.8 0
19.45 3.8 0
19.4 3.725 0
19.4 3.65 0
19.4 3.575 0
19.35 3.5 0
19.3 3.5 0
19.25 3.5 0
19.2 3.5 0
19.15 3.5 0
19.1 3.5 0
19.05 3.5 0
19 3.45 0
19 3.4 0
19 3.35 0
18.95 3.3 0
18.9 3.3 0
18.85 3.3 0
18.8 3.3 0
18.75 3.3 0
18.7 3.3 0
18.65 3.3 0
18.6 3.25 0
18.6 3.2 0
18.6 3.15 0
18.55 3.0875 0
18.5 3.075 0
18.45 3.0625 0
18.4 3.05 0
18.35 3.0375 0
18.3 3.025 0
18.25 3.0125 0
18.2 2.95 0
18.2 2.9 0
18.2 2.85 0
18.1375 2.8 0
18.075 2.8 0
18.0125 2.8 0
17.95 2.8 0
17.8875 2.8 0
17.825 2.8 0
17.7625 2.8 0
17.7 2.75 0
17.7 2.7 0
17.7 2.65 0
17.6625 2.5875 0
17.625 2.575 0
17.5875 2.5625 0
17.55 2.55 0
17.5125 2.5375 0
17.475 2.525 0
17.4375 2.5125 0
17.4 2.45 0
17.4 2.4 0
17.4 2.35 0
17.3375 2.3 0
17.275 2.3 0
17.2125 2.3 0
17.15 2.3 0
17.0875 2.3 0
17.025 2.3 0
16.9625 2.3 0
16.9 2.225 0
16.9 2.15 0
16.9 2.075 0
16.85 2 0
16.8 2 0
16.75 2 0
16.7 2 0
16.65 2 0
16.6 2 0
16.55 2 0
16.5 1.95 0
16.5 1.9 0
16.5 1.85 0
16.45 1.8 0
16.4 1.8 0
16.35 1.8 0
16.3 1.8 0
16.25 1.8 0
16.2 1.8 0
16.15 1.8 0
16.1 1.725 0
16.1 1.65 0
16.1 1.575 0
16.0625 1.5 0
16.025 1.5 0
15.9875 1.5 0
15.95 1.5 0
15.9125 1.5 0
15.875 1.5 0
15.8375 1.5 0
15.8 1.425 0
15.8 1.35 0
15.8 1.275 0
32.4842 3.81583 0
21.176 4.07537 0
29.7102 5.66263 0
21.975 4.08322 0
18.545 3.02339 0
20.2631 3.8799 0
17.6939 2.50301 0
18.1411 2.68818 0
18.276 2.68555 0
18.2032 2.56766 0
25.8042 5.40692 0
32.5117 5.09332 0
17.371 2.17512 0
23.7569 4.99738 0
23.895 4.97475 0
23.7941 4.90869 0
24.0053 4.83823 0
23.8479 4.75936 0
16.8804 1.89252 0
18.9592 3.19953 0
19.1027 3.18176 0
19.0012 3.11578 0
19.2086 3.06599 0
31.5222 7.01332 0
19.7605 3.6787 0
22.9054 4.43422 0
23.1327 4.49776 0
23.064 4.29389 0
32.5221 2.87928 0
28.1635 5.41004 0
20.4706 3.86791 0
20.3266 3.78248 0
30.3676 5.71376 0
30.1411 5.13168 0
25.5383 1.86697 0
24.5786 5.37546 0
27.1334 1.98392 0
22.3436 4.12392 0
16.38 1.65551 0
32.4965 6.04378 0
26.9388 5.37448 0
30.3048 1.92416 0
28.77 2.11594 0
32.4856 4.49124 0
23.3253 4.79259 0
30.8162 4.98714 0
30.3871 4.37697 0
29.8579 4.5704 0
23.3691 2.05925 0
32.5763 2.24552 0
30.4919 6.3873 0
19.8601 3.71068 0
19.7925 3.60251 0
21.5565 1.80056 0
30.0828 3.83317 0
29.5611 4.00487 0
30.8136 4.0761 0
30.4219 6.84156 0
18.3834 2.94826 0
30.9358 5.60001 0
31.4219 5.19966 0
24.2595 5.21472 0
23.8888 4.55215 0
24.185 4.61354 0
24.1847 4.26089 0
24.4309 4.24841 0
24.1749 3.92656 0
24.5879 3.93481 0
23.231 4.31521 0
24.532 4.48731 0
23.3419 4.19938 0
23.1894 4.03579 0
24.4718 3.56153 0
25.0156 3.67877 0
19.8827 3.59569 0
19.8576 3.46171 0
20.0232 3.42563 0
20.0095 3.22622 0
19.3083 3.42313 0
19.4549 3.41377 0
17.8353 2.51173 0
17.7606 2.43442 0
31.4063 5.62174 0
30.39 7.3359 0
23.6732 4.54618 0
25.2489 4.10626 0
25.4329 3.43792 0
17.536 2.46452 0
25.6955 3.91599 0
26.1868 3.74489 0
17.0833 2.0596 0
17.0425 1.91223 0
31.0413 6.02141 0
24.7926 5.39779 0
30.6703 8.23833 0
24.1558 3.55284 0
19.6763 3.63875 0
18.6234 3.02912 0
19.0693 2.97579 0
18.6232 2.92411 0
22.978 3.90602 0
23.0657 3.6896 0
22.7165 3.78123 0
22.837 3.44751 0
22.4984 3.43315 0
22.6708 2.99609 0
23.0839 2.81313 0
22.3229 3.18605 0
30.5125 3.58661 0
31.181 3.77277 0
31.4475 4.1708 0
31.4281 6.02549 0
24.1458 3.10869 0
19.3949 3.30222 0
26.449 4.27857 0
26.7143 3.5825 0
26.996 4.14745 0
27.2584 3.3991 0
23.6805 4.87278 0
23.4524 4.82043 0
23.402 4.71291 0
31.808 5.68206 0
31.2944 7.01445 0
24.6996 5.26549 0
22.6239 4.37333 0
32.1556 6.98288 0
19.7925 2.01128 0
19.1833 3.40295 0
23.8884 5.12558 0
16.6793 1.89752 0
31.7344 3.94674 0
31.55 3.55148 0
24.3021 5.35076 0
29.2935 4.72072 0
28.996 4.17504 0
29.2989 3.42058 0
23.2448 4.72875 0
22.4518 2.54627 0
30.9015 7.82482 0
16.9596 1.79129 0
19.5474 3.27421 0
19.3619 2.94521 0
19.1574 2.7176 0
19.4513 2.65921 0
27.555 3.98087 0
20.7188 4.14011 0
20.1894 3.22786 0
20.0132 2.91741 0
20.3708 3.02175 0
20.0012 3.75893 0
24.983 5.39687 0
24.211 5.10701 0
24.3693 5.08877 0
28.7077 3.59131 0
16.7608 1.75393 0
19.3036 2.32825 0
18.8933 2.54243 0
31.8693 4.20646 0
18.0219 2.5688 0
17.9723 2.43889 0
22.6466 4.22947 0
25.9039 3.20944 0
31.7403 4.44247 0
31.3433 6.72194 0
31.6289 6.8017 0
31.0196 6.70711 0
23.4345 4.3882 0
20.1994 2.67484 0
20.4957 2.68203 0
20.8745 3.0985 0
18.7818 3.19876 0
20.9435 2.72143 0
21.2763 3.18175 0
20.855 3.5033 0
21.2799 3.49758 0
22.0107 3.45789 0
23.3569 3.68869 0
23.4821 4.92665 0
19.5869 3.7017 0
31.812 6.0502 0
32.1628 5.7179 0
32.1785 5.38599 0
31.9291 3.42734 0
31.8051 2.96761 0
31.3557 3.08071 0
31.7436 2.46715 0
19.5192 3.50176 0
21.7395 3.08108 0
25.4614 4.53627 0
20.4142 3.62077 0
17.5373 2.37384 0
19.0034 2.23917 0
18.6863 2.20517 0
18.4143 2.50426 0
18.3924 2.69154 0
21.3927 2.84182 0
30.9676 7.3083 0
19.6955 3.03583 0
15.9508 1.4459 0
28.7541 4.93746 0
18.7644 2.92407 0
30.2874 7.99617 0
24.8925 5.14482 0
19.9066 3.85546 0
19.4802 3.11431 0
20.4857 4.09079 0
23.2091 4.81453 0
24.1115 5.17204 0
17.9217 2.69775 0
32.3898 1.60002 0
24.7509 1.8818 0
19.273 3.34541 0
26.9682 2.84944 0
27.8241 3.19378 0
24.7419 2.52884 0
18.8875 3.08076 0
18.8048 2.7619 0
18.6453 2.4969 0
18.3433 2.82453 0
17.1087 2.18744 0
23.2748 4.44346 0
22.6721 1.87724 0
24.3279 4.88442 0
29.0519 2.79912 0
29.867 3.28415 0
29.0742 5.35802 0
17.8677 2.3227 0
18.0288 2.17221 0
17.8128 2.05272 0
32.1164 4.60531 0
31.9213 4.96728 0
31.1649 4.49707 0
26.3369 1.86729 0
27.2698 4.7432 0
25.2172 5.04813 0
23.6727 3.15893 0
24.111 2.56333 0
24.5028 5.26026 0
22.3788 3.64516 0
29.5066 1.97715 0
23.1442 4.67627 0
24.4581 5.43479 0
20.6278 3.72861 0
21.0547 3.82977 0
21.3561 3.79577 0
21.6154 3.49624 0
25.0538 4.6845 0
26.358 5.39136 0
26.1516 4.89247 0
26.7002 4.822 0
27.862 1.88725 0
23.5345 4.7173 0
30.6932 6.08389 0
32.2924 4.84253 0
32.0613 3.838 0
32.2793 3.34501 0
32.1243 4.19488 0
18.3895 2.25959 0
18.2815 1.9811 0
20.0429 3.8921 0
20.1775 3.75088 0
20.6136 3.99761 0
23.836 3.96481 0
17.7117 2.25157 0
17.5415 2.24461 0
17.4976 2.03908 0
17.2717 2.00934 0
31.8329 5.3136 0
17.2631 2.17051 0
17.2571 1.79385 0
31.8144 6.47148 0
32.1899 6.38959 0
30.4049 7.68993 0
30.6136 7.91015 0
17.0721 1.59491 0
20.9317 4.10472 0
29.5628 5.2192 0
32.4963 5.39581 0
31.4058 6.39669 0
30.6921 7.59552 0
30.6781 7.32595 0
30.4595 6.58128 0
22.1515 4.10571 0
20.4682 3.39298 0
27.8511 4.60457 0
17.8011 2.63285 0
27.5438 5.36258 0
32.5003 6.36298 0
32.4899 5.71457 0
30.8073 8.03888 0
32.4957 6.67615 0
30.9882 7.01644 0
31.0532 6.3794 0
20.2081 3.59029 0
16.7864 1.88945 0
24.9785 5.58377 0
21.4429 4.05998 0
19.6527 3.708 0
19.2288 3.44342 0
22.7437 4.48418 0
22.8377 4.50684 0
23.6827 4.9923 0
18.883 3.19639 0
30.4075 7.04189 0
31.877 6.92007 0
[...]
CELL_DATA 2158
NORMALS cell_normals float
0 0 1
0 0 1
0 0 1
0 0 1
0 0 1
0 0 1
0 0 1
0 0 1
0 0 1
0 0 1
0 0 1
0 0 1
0 0 1
0 0 1
0 0 1
0 0 1
0 0 1
0 0 1
0 0 1
0 0 1
0 0 1
0 0 1
0 0 1
0 0 1
0 0 1
0 0 1
0 0 1
0 0 1
0 0 1
0 0 1
0 0 1
0 0 1
0 0 1
0 0 1
0 0 1
0 0 1
0 0 1
0 0 1
0 0 1
0 0 1
0 0 1
0 0 1
0 0 1
0 0 1
0 0 1
0 0 1
0 0 1
0 0 1
0 0 1
0 0 1
0 0 1
0 0 1
0 0 1
0 0 1
0 0 1
0 0 1
0 0 1
0 0 1
0 0 1
0 0 1
0 0 1
0 0 1
0 0 1
0 0 1
0 0 1
0 0 1
0 0 1
0 0 1
0 0 1
0 0 1
0 0 1
0 0 1
0 0 1
0 0 1
0 0 1
0 0 1
0 0 1
0 0 1
0 0 1
0 0 1
0 0 1
0 0 1
0 0 1
0 0 1
0 0 1
0 0 1
0 0 1
0 0 1
0 0 1
0 0 1
0 0 1
0 0 1
0 0 1
0 0 1
0 0 1
0 0 1
0 0 1
0 0 1
0 0 1
0 0 1
0 0 1
0 0 1
0 0 1
0 0 1
0 0 1
0 0 1
0 0 1
0 0 1
0 0 1
0 0 1
0 0 1
0 0 1
0 0 1
0 0 1
0 0 1
0 0 1
0 0 1
0 0 1
0 0 1
0 0 1
0 0 1
0 0 1
0 0 1
0 0 1
0 0 1
0 0 1
0 0 1
0 0 1
0 0 1
0 0 1
0 0 1
0 0 1
0 0 1
0 0 1
0 0 1
0 0 1
0 0 1
0 0 1
0 0 1
0 0 1
0 0 1
0 0 1
0 0 1
0 0 1
0 0 1
0 0 1
0 0 1
0 0 1
0 0 1
0 0 1
0 0 1
0 0 1
0 0 1
0 0 1
0 0 1
0 0 1
0 0 1
0 0 1
0 0 1
0 0 1
0 0 1
0 0 1
0 0 1
0 0 1
0 0 1
0 0 1
0 0 1
0 0 1
0 0 1
0 0 1
0 0 1
0 0 1
0 0 1
0 0 1
0 0 1
0 0 1
0 0 1
0 0 1
0 0 1
0 0 1
0 0 1
0 0 1
0 0 1
0 0 1
0 0 1
0 0 1
0 0 1
0 0 1
0 0 1
0 0 1
0 0 1
0 0 1
0 0 1
0 0 1
0 0 1
0 0 1
0 0 1
0 0 1
0 0 1
0 0 1
0 0 1
0 0 1
0 0 1
0 0 1
0 0 1
0 0 1
0 0 1
0 0 1
0 0 1
0 0 1
0 0 1
0 0 1
0 0 1
0 0 1
0 0 1
0 0 1
0 0 1
0 0 1
0 0 1
0 0 1
0 0 1
0 0 1
0 0 1
0 0 1
0 0 1
0 0 1
0 0 1
0 0 1
0 0 1
0 0 1
0 0 1
0 0 1
0 0 1
0 0 1
0 0 1
0 0 1
0 0 1
0 0 1
0 0 1
0 0 1
0 0 1
0 0 1
0 0 1
0 0 1
0 0 1
0 0 1
0 0 1
0 0 1
0 0 1
0 0 1
0 0 1
0 0 1
0 0 1
0 0 1
0 0 1
0 0 1
0 0 1
0 0 1
0 0 1
0 0 1
0 0 1
0 0 1
0 0 1
0 0 1
0 0 1
0 0 1
0 0 1
0 0 1
0 0 1
0 0 1
0 0 1
0 0 1
0 0 1
0 0 1
0 0 1
0 0 1
0 0 1
0 0 1
0 0 1
0 0 1
0 0 1
0 0 1
0 0 1
0 0 1
0 0 1
0 0 1
0 0 1
0 0 1
0 0 1
0 0 1
0 0 1
0 0 1
0 0 1
0 0 1
0 0 1
0 0 1
0 0 1
0 0 1
0 0 1
0 0 1
0 0 1
0 0 1
0 0 1
0 0 1
0 0 1
0 0 1
0 0 1
0 0 1
0 0 1
0 0 1
0 0 1
0 0 1
0 0 1
0 0 1
0 0 1
0 0 1
0 0 1
0 0 1
0 0 1
0 0 1
0 0 1
0 0 1
0 0 1
0 0 1
0 0 1
0 0 1
0 0 1
0 0 1
0 0 1
0 0 1
0 0 1
0 0 1
0 0 1
0 0 1
0 0 1
0 0 1
0 0 1
0 0 1
0 0 1
0 0 1
0 0 1
0 0 1
0 0 1
0 0 1
0 0 1
0 0 1
0 0 1
0 0 1
0 0 1
0 0 1
0 0 1
0 0 1
0 0 1
0 0 1
0 0 1
0 0 1
0 0 1
0 0 1
0 0 1
0 0 1
0 0 1
0 0 1
0 0 1
0 0 1
0 0 1
0 0 1
0 0 1
0 0 1
0 0 1
0 0 1
0 0 1
0 0 1
0 0 1
0 0 1
0 0 1
0 0 1
0 0 1
0 0 1
0 0 1
0 0 1
0 0 1
0 0 1
0 0 1
0 0 1
0 0 1
0 0 1
0 0 1
0 0 1
0 0 1
0 0 1
0 0 1
0 0 1
0 0 1
0 0 1
0 0 1
0 0 1
0 0 1
0 0 1
0 0 1
0 0 1
0 0 1
0 0 1
0 0 1
0 0 1
0 0 1
0 0 1
0 0 1
0 0 1
0 0 1
0 0 1
0 0 1
0 0 1
0 0 1
0 0 1
0 0 1
0 0 1
0 0 1
0 0 1
0 0 1
0 0 1
0 0 1
0 0 1
0 0 1
0 0 1
0 0 1
0 0 1
0 0 1
0 0 1
0 0 1
0 0 1
0 0 1
0 0 1
0 0 1
0 0 1
0 0 1
0 0 1
0 0 1
0 0 1
0 0 1
0 0 1
0 0 1
0 0 1
0 0 1
0 0 1
0 0 1
0 0 1
0 0 1
0 0 1
0 0 1
0 0 1
0 0 1
0 0 1
0 0 1
0 0 1
0 0 1
0 0 1
0 0 1
0 0 1
0 0 1
0 0 1
0 0 1
0 0 1
0 0 1
0 0 1
0 0 1
0 0 1
0 0 1
0 0 1
0 0 1
0 0 1
0 0 1
0 0 1
0 0 1
0 0 1
0 0 1
0 0 1
0 0 1
0 0 1
0 0 1
0 0 1
0 0 1
0 0 1
0 0 1
0 0 1
0 0 1
0 0 1
0 0 1
0 0 1
0 0 1
0 0 1
0 0 1
0 0 1
0 0 1
0 0 1
0 0 1
0 0 1
0 0 1
0 0 1
0 0 1
0 0 1
0 0 1
0 0 1
0 0 1
0 0 1
0 0 1
0 0 1
0 0 1
0 0 1
0 0 1
0 0 1
0 0 1
0 0 1
0 0 1
0 0 1
0 0 1
0 0 1
0 0 1
0 0 1
0 0 1
0 0 1
0 0 1
0 0 1
0 0 1
0 0 1
0 0 1
0 0 1
0 0 1
0 0 1
0 0 1
0 0 1
0 0 1
0 0 1
0 0 1
0 0 1
0 0 1
0 0 1
0 0 1
0 0 1
0 0 1
0 0 1
0 0 1
0 0 1
0 0 1
0 0 1
0 0 1
0 0 1
0 0 1
0 0 1
0 0 1
0 0 1
0 0 1
0 0 1
0 0 1
0 0 1
0 0 1
0 0 1
0 0 1
0 0 1
0 0 1
0 0 1
0 0 1
0 0 1
0 0 1
0 0 1
0 0 1
0 0 1
0 0 1
0 0 1
0 0 1
0 0 1
0 0 1
0 0 1
0 0 1
0 0 1
0 0 1
0 0 1
0 0 1
0 0 1
0 0 1
0 0 1
0 0 1
0 0 1
0 0 1
0 0 1
0 0 1
0 0 1
0 0 1
0 0 1
0 0 1
0 0 1
0 0 1
0 0 1
0 0 1
0 0 1
0 0 1
0 0 1
0 0 1
0 0 1
0 0 1
0 0 1
0 0 1
0 0 1
0 0 1
0 0 1
0 0 1
0 0 1
0 0 1
0 0 1
0 0 1
0 0 1
0 0 1
0 0 1
0 0 1
0 0 1
0 0 1
0 0 1
0 0 1
0 0 1
0 0 1
0 0 1
0 0 1
0 0 1
0 0 1
0 0 1
0 0 1
0 0 1
0 0 1
0 0 1
0 0 1
0 0 1
0 0 1
0 0 1
0 0 1
0 0 1
0 0 1
0 0 1
0 0 1
0 0 1
0 0 1
0 0 1
0 0 1
0 0 1
0 0 1
0 0 1
0 0 1
0 0 1
0 0 1
0 0 1
0 0 1
0 0 1
0 0 1
0 0 1
0 0 1
0 0 1
0 0 1
0 0 1
0 0 1
0 0 1
0 0 1
0 0 1
0 0 1
0 0 1
0 0 1
0 0 1
0 0 1
0 0 1
0 0 1
0 0 1
0 0 1
0 0 1
0 0 1
0 0 1
0 0 1
0 0 1
0 0 1
0 0 1
0 0 1
0 0 1
0 0 1
0 0 1
0 0 1
0 0 1
0 0 1
0 0 1
0 0 1
0 0 1
0 0 1
0 0 1
0 0 1
0 0 1
0 0 1
0 0 1
0 0 1
0 0 1
0 0 1
0 0 1
0 0 1
0 0 1
0 0 1
0 0 1
0 0 1
0 0 1
0 0 1
0 0 1
0 0 1
0 0 1
0 0 1
0 0 1
0 0 1
0 0 1
0 0 1
0 0 1
0 0 1
0 0 1
0 0 1
0 0 1
0 0 1
0 0 1
0 0 1
0 0 1
0 0 1
0 0 1
0 0 1
0 0 1
0 0 1
0 0 1
0 0 1
0 0 1
0 0 1
0 0 1
0 0 1
0 0 1
0 0 1
0 0 1
0 0 1
0 0 1
0 0 1
0 0 1
0 0 1
0 0 1
0 0 1
0 0 1
0 0 1
0 0 1
0 0 1
0 0 1
0 0 1
0 0 1
0 0 1
0 0 1
0 0 1
0 0 1
0 0 1
0 0 1
0 0 1
0 0 1
0 0 1
0 0 1
0 0 1
0 0 1
0 0 1
0 0 1
0 0 1
0 0 1
0 0 1
0 0 1
0 0 1
0 0 1
0 0 1
0 0 1
0 0 1
0 0 1
0 0 1
0 0 1
0 0 1
0 0 1
0 0 1
0 0 1
0 0 1
0 0 1
0 0 1
0 0 1
0 0 1
0 0 1
0 0 1
0 0 1
0 0 1
0 0 1
0 0 1
0 0 1
0 0 1
0 0 1
0 0 1
0 0 1
0 0 1
0 0 1
0 0 1
0 0 1
0 0 1
0 0 1
0 0 1
0 0 1
0 0 1
0 0 1
0 0 1
0 0 1
0 0 1
0 0 1
0 0 1
0 0 1
0 0 1
0 0 1
0 0 1
0 0 1
0 0 1
0 0 1
0 0 1
0 0 1
0 0 1
0 0 1
0 0 1
0 0 1
0 0 1
0 0 1
0 0 1
0 0 1
0 0 1
0 0 1
0 0 1
0 0 1
0 0 1
0 0 1
0 0 1
0 0 1
0 0 1
0 0 1
0 0 1
0 0 1
0 0 1
0 0 1
0 0 1
0 0 1
0 0 1
0 0 1
0 0 1
0 0 1
0 0 1
0 0 1
0 0 1
0 0 1
0 0 1
0 0 1
0 0 1
0 0 1
0 0 1
0 0 1
0 0 1
0 0 1
0 0 1
0 0 1
0 0 1
0 0 1
0 0 1
0 0 1
0 0 1
0 0 1
0 0 1
0 0 1
0 0 1
0 0 1
0 0 1
0 0 1
0 0 1
0 0 1
0 0 1
0 0 1
0 0 1
0 0 1
0 0 1
0 0 1
0 0 1
0 0 1
0 0 1
0 0 1
0 0 1
0 0 1
0 0 1
0 0 1
0 0 1
0 0 1
0 0 1
0 0 1
0 0 1
0 0 1
0 0 1
0 0 1
0 0 1
0 0 1
0 0 1
0 0 1
0 0 1
0 0 1
0 0 1
0 0 1
0 0 1
0 0 1
0 0 1
0 0 1
0 0 1
0 0 1
0 0 1
0 0 1
0 0 1
0 0 1
0 0 1
0 0 1
0 0 1
0 0 1
0 0 1
0 0 1
0 0 1
0 0 1
0 0 1
0 0 1
0 0 1
0 0 1
0 0 1
0 0 1
0 0 1
0 0 1
0 0 1
0 0 1
0 0 1
0 0 1
0 0 1
0 0 1
0 0 1
0 0 1
0 0 1
0 0 1
0 0 1
0 0 1
0 0 1
0 0 1
0 0 1
0 0 1
0 0 1
0 0 1
0 0 1
0 0 1
0 0 1
0 0 1
0 0 1
0 0 1
0 0 1
0 0 1
0 0 1
0 0 1
0 0 1
0 0 1
0 0 1
0 0 1
0 0 1
0 0 1
0 0 1
0 0 1
0 0 1
0 0 1
0 0 1
0 0 1
0 0 1
0 0 1
0 0 1
0 0 1
0 0 1
0 0 1
0 0 1
0 0 1
0 0 1
0 0 1
0 0 1
0 0 1
0 0 1
0 0 1
0 0 1
0 0 1
0 0 1
0 0 1
0 0 1
0 0 1
0 0 1
0 0 1
0 0 1
0 0 1
0 0 1
0 0 1
0 0 1
0 0 1
0 0 1
0 0 1
0 0 1
0 0 1
0 0 1
0 0 1
0 0 1
0 0 1
0 0 1
0 0 1
0 0 1
0 0 1
0 0 1
0 0 1
0 0 1
0 0 1
0 0 1
0 0 1
0 0 1
0 0 1
0 0 1
0 0 1
0 0 1
0 0 1
0 0 1
0 0 1
0 0 1
0 0 1
0 0 1
0 0 1
0 0 1
0 0 1
0 0 1
0 0 1
0 0 1
0 0 1
0 0 1
0 0 1
0 0 1
0 0 1
0 0 1
0 0 1
0 0 1
0 0 1
0 0 1
0 0 1
0 0 1
0 0 1
0 0 1
0 0 1
0 0 1
0 0 1
0 0 1
0 0 1
0 0 1
0 0 1
0 0 1
0 0 1
0 0 1
0 0 1
0 0 1
0 0 1
0 0 1
0 0 1
0 0 1
0 0 1
0 0 1
0 0 1
0 0 1
0 0 1
0 0 1
0 0 1
0 0 1
0 0 1
0 0 1
0 0 1
0 0 1
0 0 1
0 0 1
0 0 1
0 0 1
0 0 1
0 0 1
0 0 1
0 0 1
0 0 1
0 0 1
0 0 1
0 0 1
0 0 1
0 0 1
0 0 1
0 0 1
0 0 1
0 0 1
0 0 1
0 0 1
0 0 1
0 0 1
0 0 1
0 0 1
0 0 1
0 0 1
0 0 1
0 0 1
0 0 1
0 0 1
0 0 1
0 0 1
0 0 1
0 0 1
0 0 1
0 0 1
0 0 1
0 0 1
0 0 1
0 0 1
0 0 1
0 0 1
0 0 1
0 0 1
0 0 1
0 0 1
0 0 1
0 0 1
0 0 1
0 0 1
0 0 1
0 0 1
0 0 1
0 0 1
0 0 1
0 0 1
0 0 1
0 0 1
0 0 1
0 0 1
0 0 1
0 0 1
0 0 1
0 0 1
0 0 1
0 0 1
0 0 1
0 0 1
0 0 1
0 0 1
0 0 1
0 0 1
0 0 1
0 0 1
0 0 1
0 0 1
0 0 1
0 0 1
0 0 1
0 0 1
0 0 1
0 0 1
0 0 1
0 0 1
0 0 1
0 0 1
0 0 1
0 0 1
0 0 1
0 0 1
0 0 1
0 0 1
0 0 1
0 0 1
0 0 1
0 0 1
0 0 1
0 0 1
0 0 1
0 0 1
0 0 1
0 0 1
0 0 1
0 0 1
0 0 1
0 0 1
0 0 1
0 0 1
0 0 1
0 0 1
0 0 1
0 0 1
0 0 1
0 0 1
0 0 1
0 0 1
0 0 1
0 0 1
0 0 1
0 0 1
0 0 1
0 0 1
0 0 1
0 0 1
0 0 1
0 0 1
0 0 1
0 0 1
0 0 1
0 0 1
0 0 1
0 0 1
0 0 1
0 0 1
0 0 1
0 0 1
0 0 1
0 0 1
0 0 1
0 0 1
0 0 1
0 0 1
0 0 1
0 0 1
0 0 1
0 0 1
0 0 1
0 0 1
0 0 1
0 0 1
0 0 1
0 0 1
0 0 1
0 0 1
0 0 1
0 0 1
0 0 1
0 0 1
0 0 1
0 0 1
0 0 1
0 0 1
0 0 1
0 0 1
0 0 1
0 0 1
0 0 1
0 0 1
0 0 1
0 0 1
0 0 1
0 0 1
0 0 1
0 0 1
0 0 1
0 0 1
0 0 1
0 0 1
0 0 1
0 0 1
0 0 1
0 0 1
0 0 1
0 0 1
0 0 1
0 0 1
0 0 1
0 0 1
0 0 1
0 0 1
0 0 1
0 0 1
0 0 1
0 0 1
0 0 1
0 0 1
0 0 1
0 0 1
0 0 1
0 0 1
0 0 1
0 0 1
0 0 1
0 0 1
0 0 1
0 0 1
0 0 1
0 0 1
0 0 1
0 0 1
0 0 1
0 0 1
0 0 1
0 0 1
0 0 1
0 0 1
0 0 1
0 0 1
0 0 1
0 0 1
0 0 1
0 0 1
0 0 1
0 0 1
0 0 1
0 0 1
0 0 1
0 0 1
0 0 1
0 0 1
0 0 1
0 0 1
0 0 1
0 0 1
0 0 1
0 0 1
0 0 1
0 0 1
0 0 1
0 0 1
0 0 1
0 0 1
0 0 1
0 0 1
0 0 1
0 0 1
0 0 1
0 0 1
0 0 1
0 0 1
0 0 1
0 0 1
0 0 1
0 0 1
0 0 1
0 0 1
0 0 1
0 0 1
0 0 1
0 0 1
0 0 1
0 0 1
0 0 1
0 0 1
0 0 1
0 0 1
0 0 1
0 0 1
0 0 1
0 0 1
0 0 1
0 0 1
0 0 1
0 0 1
0 0 1
0 0 1
0 0 1
0 0 1
0 0 1
0 0 1
0 0 1
0 0 1
0 0 1
0 0 1
0 0 1
0 0 1
0 0 1
0 0 1
0 0 1
0 0 1
0 0 1
0 0 1
0 0 1
0 0 1
0 0 1
0 0 1
0 0 1
0 0 1
0 0 1
0 0 1
0 0 1
0 0 1
0 0 1
0 0 1
0 0 1
0 0 1
0 0 1
0 0 1
0 0 1
0 0 1
0 0 1
0 0 1
0 0 1
0 0 1
0 0 1
0 0 1
0 0 1
0 0 1
0 0 1
0 0 1
0 0 1
0 0 1
0 0 1
0 0 1
0 0 1
0 0 1
0 0 1
0 0 1
0 0 1
0 0 1
0 0 1
0 0 1
0 0 1
0 0 1
0 0 1
0 0 1
0 0 1
0 0 1
0 0 1
0 0 1
0 0 1
0 0 1
0 0 1
0 0 1
0 0 1
0 0 1
0 0 1
0 0 1
0 0 1
0 0 1
0 0 1
0 0 1
0 0 1
0 0 1
0 0 1
0 0 1
0 0 1
0 0 1
0 0 1
0 0 1
0 0 1
0 0 1
0 0 1
0 0 1
0 0 1
0 0 1
0 0 1
0 0 1
0 0 1
0 0 1
0 0 1
0 0 1
0 0 1
0 0 1
0 0 1
0 0 1
0 0 1
0 0 1
0 0 1
0 0 1
0 0 1
0 0 1
0 0 1
0 0 1
0 0 1
0 0 1
0 0 1
0 0 1
0 0 1
0 0 1
0 0 1
0 0 1
0 0 1
0 0 1
0 0 1
0 0 1
0 0 1
0 0 1
0 0 1
0 0 1
0 0 1
0 0 1
0 0 1
0 0 1
0 0 1
0 0 1
0 0 1
0 0 1
0 0 1
0 0 1
0 0 1
0 0 1
0 0 1
0 0 1
0 0 1
0 0 1
0 0 1
0 0 1
0 0 1
0 0 1
0 0 1
0 0 1
0 0 1
0 0 1
0 0 1
0 0 1
0 0 1
0 0 1
0 0 1
0 0 1
0 0 1
0 0 1
0 0 1
0 0 1
0 0 1
0 0 1
0 0 1
0 0 1
0 0 1
0 0 1
0 0 1
0 0 1
0 0 1
0 0 1
0 0 1
0 0 1
0 0 1
0 0 1
0 0 1
0 0 1
0 0 1
0 0 1
0 0 1
0 0 1
0 0 1
0 0 1
0 0 1
0 0 1
0 0 1
0 0 1
0 0 1
0 0 1
0 0 1
0 0 1
0 0 1
0 0 1
0 0 1
0 0 1
0 0 1
0 0 1
0 0 1
0 0 1
0 0 1
0 0 1
0 0 1
0 0 1
0 0 1
0 0 1
0 0 1
0 0 1
0 0 1
0 0 1
0 0 1
0 0 1
0 0 1
0 0 1
0 0 1
0 0 1
0 0 1
0 0 1
0 0 1
0 0 1
0 0 1
0 0 1
0 0 1
0 0 1
0 0 1
0 0 1
0 0 1
0 0 1
0 0 1
0 0 1
0 0 1
0 0 1
0 0 1
0 0 1
0 0 1
0 0 1
0 0 1
0 0 1
0 0 1
0 0 1
0 0 1
0 0 1
0 0 1
0 0 1
0 0 1
0 0 1
0 0 1
0 0 1
0 0 1
0 0 1
0 0 1
0 0 1
0 0 1
0 0 1
0 0 1
0 0 1
0 0 1
0 0 1
0 0 1
0 0 1
0 0 1
0 0 1
0 0 1
0 0 1
0 0 1
0 0 1
0 0 1
0 0 1
0 0 1
0 0 1
0 0 1
0 0 1
0 0 1
0 0 1
0 0 1
0 0 1
0 0 1
0 0 1
0 0 1
0 0 1
0 0 1
0 0 1
0 0 1
0 0 1
0 0 1
0 0 1
0 0 1
0 0 1
0 0 1
0 0 1
0 0 1
0 0 1
0 0 1
0 0 1
0 0 1
0 0 1
0 0 1
0 0 1
0 0 1
0 0 1
0 0 1
0 0 1
0 0 1
0 0 1
0 0 1
0 0 1
0 0 1
0 0 1
0 0 1
0 0 1
0 0 1
0 0 1
0 0 1
0 0 1
0 0 1
0 0 1
0 0 1
0 0 1
0 0 1
0 0 1
0 0 1
0 0 1
0 0 1
0 0 1
0 0 1
0 0 1
0 0 1
0 0 1
0 0 1
0 0 1
0 0 1
0 0 1
0 0 1
0 0 1
0 0 1
0 0 1
0 0 1
0 0 1
0 0 1
0 0 1
0 0 1
0 0 1
0 0 1
0 0 1
0 0 1
0 0 1
0 0 1
0 0 1
0 0 1
0 0 1
0 0 1
0 0 1
0 0 1
0 0 1
0 0 1
0 0 1
0 0 1
0 0 1
0 0 1
0 0 1
0 0 1
0 0 1
0 0 1
0 0 1
0 0 1
0 0 1
0 0 1
0 0 1
0 0 1
0 0 1
0 0 1
0 0 1
0 0 1
0 0 1
0 0 1
0 0 1
0 0 1
0 0 1
0 0 1
0 0 1
0 0 1
0 0 1
0 0 1
0 0 1
0 0 1
0 0 1
0 0 1
0 0 1
0 0 1
0 0 1
0 0 1
0 0 1
0 0 1
0 0 1
0 0 1
0 0 1
0 0 1
0 0 1
0 0 1
0 0 1
0 0 1
0 0 1
0 0 1
0 0 1
0 0 1
0 0 1
0 0 1
0 0 1
0 0 1
0 0 1
0 0 1
0 0 1
0 0 1
0 0 1
0 0 1
0 0 1
0 0 1
0 0 1
0 0 1
0 0 1
0 0 1
0 0 1
0 0 1
0 0 1
0 0 1
0 0 1
0 0 1
0 0 1
0 0 1
0 0 1
0 0 1
0 0 1
0 0 1
0 0 1
0 0 1
0 0 1
0 0 1
0 0 1
0 0 1
0 0 1
0 0 1
0 0 1
0 0 1
0 0 1
0 0 1
0 0 1
0 0 1
0 0 1
0 0 1
0 0 1
0 0 1
0 0 1
0 0 1
0 0 1
0 0 1
0 0 1
0 0 1
0 0 1
0 0 1
0 0 1
0 0 1
0 0 1
0 0 1
0 0 1
0 0 1
0 0 1
0 0 1
0 0 1
0 0 1
0 0 1
0 0 1
0 0 1
0 0 1
0 0 1
0 0 1
0 0 1
0 0 1
0 0 1
0 0 1
0 0 1
0 0 1
0 0 1
0 0 1
0 0 1
0 0 1
0 0 1
0 0 1
0 0 1
0 0 1
0 0 1
0 0 1
0 0 1
0 0 1
0 0 1
0 0 1
0 0 1
0 0 1
0 0 1
0 0 1
0 0 1
0 0 1
0 0 1
0 0 1
0 0 1
0 0 1
0 0 1
0 0 1
0 0 1
0 0 1
0 0 1
0 0 1
0 0 1
0 0 1
0 0 1
0 0 1
0 0 1
0 0 1
0 0 1
0 0 1
0 0 1
0 0 1
0 0 1
0 0 1
0 0 1
0 0 1
0 0 1
0 0 1
0 0 1
0 0 1
0 0 1
0 0 1
0 0 1
0 0 1
0 0 1
0 0 1
0 0 1
0 0 1
0 0 1
0 0 1
0 0 1
0 0 1
0 0 1
0 0 1
0 0 1
0 0 1
0 0 1
0 0 1
0 0 1
0 0 1
0 0 1
0 0 1
0 0 1
0 0 1
0 0 1
0 0 1
0 0 1
0 0 1
0 0 1
0 0 1
0 0 1
0 0 1
0 0 1
0 0 1
0 0 1
0 0 1
0 0 1
0 0 1
0 0 1
0 0 1
0 0 1
0 0 1
0 0 1
0 0 1
0 0 1
0 0 1
0 0 1
0 0 1
0 0 1
0 0 1
0 0 1
0 0 1
0 0 1
0 0 1
0 0 1
0 0 1
0 0 1
0 0 1
0 0 1
0 0 1
0 0 1
0 0 1
0 0 1
0 0 1
0 0 1
0 0 1
0 0 1
0 0 1
0 0 1
0 0 1
0 0 1
0 0 1
0 0 1
0 0 1
0 0 1
0 0 1
0 0 1
0 0 1
0 0 1
0 0 1
0 0 1
0 0 1
0 0 1
0 0 1
0 0 1
0 0 1
0 0 1
0 0 1
0 0 1
0 0 1
0 0 1
0 0 1
0 0 1
0 0 1
0 0 1
0 0 1
0 0 1
0 0 1
0 0 1
0 0 1
0 0 1
0 0 1
0 0 1
0 0 1
0 0 1
0 0 1
0 0 1
0 0 1
0 0 1
0 0 1
0 0 1
0 0 1
0 0 1
0 0 1
0 0 1
0 0 1
0 0 1
0 0 1
0 0 1
0 0 1
0 0 1
0 0 1
0 0 1
0 0 1
0 0 1
0 0 1
0 0 1
0 0 1
0 0 1
0 0 1
0 0 1
0 0 1
0 0 1
0 0 1
0 0 1
0 0 1
0 0 1
0 0 1
0 0 1
0 0 1
0 0 1
0 0 1
0 0 1
0 0 1
0 0 1
0 0 1
0 0 1
0 0 1
0 0 1
0 0 1
0 0 1
0 0 1
0 0 1
0 0 1
0 0 1
0 0 1
0 0 1
0 0 1
0 0 1
0 0 1
0 0 1
0 0 1
0 0 1
0 0 1
0 0 1
0 0 1
0 0 1
0 0 1
0 0 1
0 0 1
0 0 1
0 0 1
0 0 1
0 0 1
0 0 1
0 0 1
0 0 1
0 0 1
0 0 1
0 0 1
0 0 1
0 0 1
0 0 1
0 0 1
0 0 1
0 0 1
0 0 1
0 0 1
0 0 1
0 0 1
0 0 1
0 0 1
0 0 1
0 0 1
0 0 1
0 0 1
0 0 1
0 0 1
0 0 1
0 0 1
0 0 1
0 0 1
0 0 1
0 0 1
0 0 1
0 0 1
0 0 1
0 0 1
0 0 1
0 0 1
0 0 1
0 0 1
0 0 1
0 0 1
0 0 1
0 0 1
0 0 1
0 0 1
0 0 1
0 0 1
0 0 1
0 0 1
0 0 1
0 0 1
0 0 1
0 0 1
0 0 1
0 0 1
0 0 1
0 0 1
0 0 1
0 0 1
0 0 1
0 0 1
0 0 1
0 0 1
0 0 1
0 0 1
0 0 1
0 0 1
0 0 1
0 0 1
0 0 1
0 0 1
0 0 1
0 0 1
0 0 1
0 0 1
0 0 1
0 0 1
0 0 1
0 0 1
0 0 1
0 0 1
0 0 1
0 0 1
0 0 1
0 0 1
0 0 1
0 0 1
0 0 1
0 0 1
0 0 1
0 0 1
0 0 1
0 0 1
0 0 1
0 0 1
0 0 1
0 0 1
0 0 1
0 0 1
0 0 1
0 0 1
0 0 1
0 0 1
0 0 1
0 0 1
0 0 1
0 0 1
0 0 1
0 0 1
POINT_DATA 2333
SCALARS x_displacement float 1
LOOKUP_TABLE default
0.684382
-0.0831208
2.5484
2.53964
2.85719
2.85724
2.53683
2.22463
3.29352
3.36204
3.41388
3.64219
3.73286
3.95001
4.05589
4.32846
4.4093
5.09788
5.3608
6.66133
12.7776
15.9108
27.9367
22.1746
29.8425
22.8106
31.4442
23.7879
31.898
23.5279
26.9289
20.98
28.759
20.6356
23.073
16.1966
22.2538
11.9955
18.7585
6.61838
5.80683
3.8002
3.97414
0
0
0
0
0
0
0
0
0
0
0
0
0
0
0
0
0
0
0
0
0
0
0
0
0
0
0
0
0
0
0
0
0
0
0
0
0
0.129911
0.264771
0.360656
0.445319
0.527236
0.60807
0.688252
0.767963
0.847281
0.925897
1.00376
1.08071
1.15651
1.23099
1.30386
1.37495
1.4443
1.51169
1.57714
1.64067
1.70228
1.76197
1.81974
1.8757
1.92995
1.98263
2.03386
2.08379
2.13259
2.18041
2.22744
2.27384
2.3198
2.36548
2.41106
2.45668
2.50247
2.5484
2.54828
2.54787
2.54704
2.54579
2.54413
2.54215
2.57804
2.61758
2.65736
2.69727
2.73723
2.77722
2.81721
2.8572
2.8572
2.85721
2.85722
2.85723
2.85724
2.85724
2.81724
2.77725
2.73726
2.69726
2.65723
2.61716
2.57703
2.49652
2.45613
2.41569
2.37528
2.33518
2.29572
2.2576
2.23639
2.25549
2.28216
2.31747
2.36113
2.41357
2.47373
2.54179
2.61696
2.69857
2.78552
2.87624
2.96861
3.05978
3.14552
3.21886
3.27444
3.31234
3.39362
3.4102
3.41723
3.41765
3.41505
3.44964
3.49015
3.54365
3.6867
3.71091
3.72524
3.7335
3.73663
3.73583
3.73371
3.76768
3.80712
3.85804
4.00215
4.02949
4.04674
4.05655
4.06026
4.05938
4.05688
4.10188
4.1532
4.21776
4.38485
4.41038
4.42134
4.42383
4.42035
4.41463
4.41041
4.51875
4.64385
4.80806
5.24737
5.32823
5.37102
5.38992
5.38932
5.37681
5.36452
5.54914
5.7659
6.06263
7.29998
7.76711
8.20232
8.62424
9.04383
9.46436
9.88676
10.3106
10.7339
11.153
11.5619
11.9507
12.3042
12.5999
12.7998
12.8545
12.8146
13.2132
13.705
14.4314
17.0819
17.9687
18.8122
19.6817
20.6443
21.9259
23.8869
22.2453
20.8591
20.6632
21.8578
22.0818
22.4621
23.0572
23.9058
25.1467
27.0455
23.1399
21.7312
21.3096
22.4805
22.6935
23.1286
23.7389
24.5667
25.7804
27.8185
25.1429
23.5689
22.988
23.2209
23.2816
23.6264
24.191
25.0053
26.2263
28.2709
25.443
23.7385
22.8541
22.0462
21.6756
21.6731
21.9109
22.307
23.0409
24.3933
22.4388
21.242
20.5894
19.9764
19.8827
20.1464
20.6699
21.4577
22.6425
24.7033
22.7055
20.9664
20.1136
19.6063
19.1626
19.0439
19.1551
19.4726
20.0926
21.2315
18.7967
17.2461
16.3529
14.7437
14.4226
14.5521
15.0015
15.7636
16.965
19.0197
15.5271
13.4499
12.3139
10.7632
10.4562
10.5637
10.9896
11.7587
13.0088
15.1107
11.9893
9.8722
8.31515
6.04589
5.8034
5.74686
5.75228
5.75832
5.78178
5.80219
5.43837
5.0138
4.46175
3.81373
3.85067
3.88074
3.91823
3.95169
3.96945
3.9736
3.16782
2.34114
1.48838
1.39233
11.4498
2.17357
8.65321
21.4103
16.8683
18.0836
18.9102
18.2761
16.983
3.06983
1.89027
13.4134
4.05198
3.9997
4.10286
4.03075
4.18772
9.52553
21.9662
20.692
20.5119
18.6239
2.46317
20.5416
5.4985
5.12224
5.50344
0.953078
2.36961
15.1692
16.2895
2.13391
1.9857
1.04024
3.47267
0.784906
7.44087
5.25445
2.18942
2.69103
0.415854
0.653031
1.67136
4.49102
1.88804
1.68903
1.81983
2.57672
0.638562
2.29167
19.9532
19.5948
3.1432
1.47893
1.62249
1.53102
2.41318
21.4586
2.07609
1.93613
3.67216
4.30095
4.02939
4.1452
3.91437
4.16599
3.74318
5.23138
3.80094
5.17669
5.5261
3.70946
3.26625
18.8491
18.0558
16.7599
15.5185
22.1474
20.7831
17.5955
16.6643
2.07023
2.54647
4.49739
3.24259
2.80577
18.4987
2.88039
2.518
11.9138
9.62119
2.19135
3.40379
2.78745
4.05968
20.8038
21.2235
18.2996
19.7792
5.9737
5.77737
6.53803
6.06729
6.7569
5.70537
4.66261
6.76938
1.32249
1.37768
1.54752
2.18817
3.70274
20.1063
2.61093
2.17616
2.33249
1.85527
4.19644
4.38966
4.5458
2.08362
2.46242
3.47686
6.01803
2.45723
6.49769
22.945
3.87436
9.73427
1.4464
1.26623
3.56001
1.95333
1.79023
1.37443
4.6223
4.97577
2.67725
7.83096
18.7043
16.4663
14.874
13.1688
2.06271
12.9983
14.6176
13.2667
12.5593
18.9271
3.34454
3.75254
3.6916
1.56946
7.11519
10.3325
13.8869
1.55693
17.7934
16.001
6.42281
2.34416
1.65419
2.38225
2.40498
2.37748
4.89134
10.8273
9.99475
10.9506
23.1662
8.92503
9.74233
12.4629
10.5246
8.01045
5.26046
4.24176
22.1586
2.19296
2.09268
1.98838
1.20725
0.977101
1.03301
0.709889
20.835
7.99143
3.18074
15.2991
16.5541
10.1735
10.6234
15.2386
17.8354
8.18096
2.54004
15.6603
3.35229
2.11995
19.1003
2.72291
3.43518
20.211
17.5818
13.9488
4.51439
3.75405
20.0993
0.273766
1.35153
21.5318
1.58008
1.55407
2.41196
20.7199
16.857
14.2561
19.8568
14.123
5.02502
2.54128
3.80968
1.05849
1.22719
2.18244
14.5421
11.9112
10.6456
1.71515
1.84873
1.68981
0.827471
2.4416
3.30733
4.35245
2.9882
3.55053
7.2527
0.493809
4.77091
3.47549
14.1278
11.9069
10.6326
9.28341
3.42436
2.88108
2.89045
2.66075
0.585792
4.44868
2.21298
1.80245
1.39809
1.17321
1.55195
12.134
8.83353
19.2702
17.3861
13.8694
4.57597
13.866
14.1681
11.0331
11.0134
1.96709
13.5534
7.71943
2.31303
2.28969
2.64122
2.69998
4.95277
12.3307
2.07542
1.99068
2.29242
2.61612
2.54404
2.34304
8.07238
14.1017
2.22321
19.6191
2.51277
2.28185
2.09081
2.73428
2.37089
2.46159
2.28839
16.5132
9.55159
3.30753
10.4784
21.7263
23.036
5.58125
5.45332
4.09038
22.4594
2.46731
2.43874
2.37832
22.5542
9.52014
1.99696
6.45101
4.27919
4.33129
5.80947
5.0768
3.35772
5.96225
7.36699
8.49874
20.8939
3.62256
10.7324
2.68908
3.58674
3.74477
3.67181
4.46272
0.769547
0.739895
0.393562
4.64843
17.3488
7.9179
3.19686
1.15878
0.874447
1.15582
16.31
2.29021
3.77732
1.93152
3.39407
4.13055
22.5147
1.78691
20.9584
3.72394
2.79754
18.152
20.2358
11.7953
4.70639
4.44381
0.372414
19.1183
4.27692
6.32332
3.5548
1.80418
7.5332
19.5965
16.9271
1.78439
0.497659
18.6496
0.919816
3.87402
6.05203
3.227
1.95319
19.3449
14.2213
4.94965
1.15131
2.81025
6.38509
6.44009
3.43014
1.53559
0.963509
18.5962
9.47782
21.6297
2.19314
2.23986
2.37755
17.8596
19.3377
4.58982
5.11831
1.2412
2.2199
20.2092
3.88379
3.11124
6.57588
1.88039
1.3163
21.0619
3.48474
9.30157
19.4607
6.12388
15.1009
0.909274
2.46527
17.7594
7.36389
0.73792
13.5438
21.3144
4.57927
5.31541
2.37423
5.94938
13.0682
7.66247
2.61215
4.14873
3.80055
4.74641
3.59356
2.45871
23.7153
3.56164
23.8137
20.8853
9.99267
5.68955
7.06704
22.1381
7.31453
9.01509
1.50225
21.0787
21.0856
1.78975
2.27983
14.1778
1.26579
2.66401
1.28321
18.8653
5.72433
15.4602
4.81299
17.7317
2.89606
2.75372
13.2716
20.265
2.78993
5.47893
4.89421
3.6056
3.63267
3.65665
2.72685
2.71713
2.76087
2.77059
2.74386
16.5861
16.5436
18.0058
18.1673
17.3288
1.93526
1.97751
1.90899
1.86443
1.92194
5.11834
5.00993
4.83779
4.90643
4.97583
2.24767
2.15287
2.23159
2.32071
2.23831
5.16616
5.40026
4.297
4.23343
4.79507
2.50474
2.46335
2.50099
2.54197
2.50277
11.8959
12.673
12.4823
11.6736
12.175
2.57614
2.53965
2.61488
2.57723
9.51227
9.99477
10.5655
10.0382
10.0288
3.91898
3.71307
3.71612
3.91635
3.81692
2.33746
2.37986
2.3329
2.29036
2.33517
22.7044
23.0708
23.5569
22.9697
13.7875
12.9903
11.4914
12.3096
12.6763
5.51813
5.75902
5.70517
5.47631
5.61053
11.055
12.2095
13.4903
12.2834
1.79106
1.73844
1.86344
1.90982
1.82636
5.57701
5.23354
5.50996
5.93808
5.57513
2.46815
2.39361
2.54836
2.64031
2.51381
1.69307
1.72876
1.79343
1.75934
1.74402